71
Lattice="14.76 0.0 0.0 -7.38 12.782534959858314 0.0 0.0 -0.0 2.0" Properties=species:S:1:pos:R:3:move_mask:L:1:energies:R:1:forces:R:3 title="Defect A (5|9)" energy=-514.535205983501 free_energy=-514.535205983501 stress="0.0180160716153916 -0.049417287086812665 1.4279662673179104e-05 -0.049417287086812665 0.0751881098473154 1.0333899991819967e-05 1.4279662673179104e-05 1.0333899991819967e-05 -7.427118691863541e-07" pbc="T T F"
C        5.11964412       7.92687521       1.78249430  T      -4.73461614       0.01463817       0.00635778       0.00658365
C        3.53572010       5.92587680       0.97557566  T      -5.71107595       0.01184627       0.00408554       0.01080137
C        2.59470870       7.55572527       0.97691655  T      -5.71106725       0.00761718       0.00474171       0.00830581
C        4.96440187       9.27535229       1.43977756  T      -7.37859822      -0.01363095       0.00810909      -0.00915828
C        6.20986915       7.11801457       1.44021998  T      -7.37846674      -0.00117907      -0.01393235      -0.00937414
C        4.83534615       5.13509093       1.02601922  T      -7.09632795      -0.00890898      -0.01571499       0.01151075
C        6.12610958       5.73944534       1.17307088  T      -7.41226344      -0.01697410      -0.01093531       0.03336888
C        2.55955672       9.07654438       1.02868490  T      -7.09647721      -0.01574903       0.00200068       0.00488932
C        3.72838691       9.89232219       1.17465365  T      -7.41224603      -0.01824724      -0.01164537       0.02902173
C        2.42763738       5.00587743       0.94899099  T      -7.21192976       0.02005247       0.00019348       0.02886070
C        1.24394813       7.05597637       0.95029722  T      -7.21198963       0.01158499       0.02120144       0.02817936
C        7.41619943       7.81856759       1.19312223  T      -7.28573761      -0.00101049      -0.00193616       0.00234992
C        6.17405736       9.96960523       1.19108950  T      -7.28583718      -0.00144793      -0.00090801       0.00773939
C        1.18891835       5.65747765       0.94579075  T      -7.29045430      -0.00089037      -0.00328603       0.02790246
C        7.39165140       9.23848042       1.10925509  T      -7.33360679      -0.00920918      -0.00475705      -0.02531302
C        4.89939595       3.63145882       0.99720918  T      -7.09476654       0.00544026       0.01005471      -0.00891996
C        7.35231728       4.98179838       1.05855136  T      -7.29511042      -0.01327475       0.00551257      -0.03188167
C        1.28952832       9.88379392       0.99956106  T      -7.09513207       0.01033147      -0.00092100      -0.01484965
C        3.68548328      11.33291721       1.05896304  T      -7.29531026      -0.00174067      -0.01379038      -0.03324227
C        2.45787895       3.57923744       0.97782453  T      -7.36644290       0.00642765      -0.00527196       0.00024074
C        0.02360489       7.79549350       0.97929448  T      -7.36650127      -0.00118861       0.00752607      -0.00158217
C        6.15271788      11.37315972       1.05458478  T      -7.36837592       0.01735733      -0.00553965       0.00967638
C        8.62097755       7.09825856       1.05676774  T      -7.36842980       0.00321451       0.01827239       0.00354331
C        3.68586787       2.86706960       0.99245798  T      -7.34341146       0.01553619       0.00482831      -0.02212046
C        0.02082685       9.21501601       0.99444209  T      -7.34353853       0.01293959       0.01145988      -0.02660352
C        8.60276788       5.67885391       1.02590165  T      -7.32457453      -0.00965118       0.02043154       0.00699901
C        4.91439654      12.06722350       1.02481538  T      -7.32449888       0.01292722      -0.01871100       0.00977328
C        0.00000000       4.97098582       1.00057799  F      -7.38970363      -1.46011867      -0.84279063      -0.14116165
C        6.15000000       2.84056332       1.00057799  F      -7.28648386      -1.01611535       1.50835265      -0.07637778
C        7.38000000       3.55070416       1.00057799  F      -7.37072591      -0.35448274       0.47995426       0.16567749
C        1.23000000      11.36225330       1.00057799  F      -7.28656784       0.79715161      -1.63304302      -0.06689659
C        2.46000000      12.07239413       1.00057799  F      -7.37072522       0.23719507      -0.54616784       0.16569883
C        8.61000000       9.94197164       1.00057799  F      -7.34709671       0.33420948       0.19235849       0.20092162
C        1.23000000       2.84056332       1.00057799  F      -7.32566046       0.18595032       0.29810320      -0.06796432
C       -1.23000000       7.10140831       1.00057799  F      -7.32567699       0.34974693       0.01198970      -0.06302537
C        7.38000000      12.07239413       1.00057799  F      -7.34909011       0.12136438       0.27743057       0.07394197
C        9.84000000       7.81154914       1.00057799  F      -7.34906692       0.30276260      -0.03371659       0.08201275
C        0.00000000       3.55070416       1.00057799  F      -7.32419248      -0.15997289      -0.06020589       0.07113243
C       -1.23000000       5.68112665       1.00057799  F      -7.32415002      -0.13248034      -0.10849766       0.06987639
C       -4.92000000       9.23183080       1.00057799  F      -7.34215431       0.03109163       0.01001783      -0.14460768
C       -6.15000000      11.36225330       1.00057799  F      -7.34219449       0.02408366       0.02171179      -0.14271757
C        3.69000000       1.42028166       1.00057799  F      -7.33769618       0.10135848       0.87674580      -0.02319577
C       -1.23000000       9.94197164       1.00057799  F      -7.33777623       0.80815861      -0.34976025      -0.01545845
C        9.84000000       4.97098582       1.00057799  F      -7.34948754      -0.24067662      -0.05398534       0.03890522
C       12.30000000       0.71014083       1.00057799  F      -7.34948593      -0.16679084      -0.18229712       0.03496080
C        6.15000000       1.42028166       1.00057799  F      -7.38964535      -0.23863009       0.14028277       0.00255683
C        8.61000000       2.84056332       1.00057799  F      -7.36273981      -0.01829662       0.11263116      -0.04383880
C        9.84000000       0.71014083       1.00057799  F      -7.36271508       0.08826784      -0.07206019      -0.04410104
C        0.00000000      12.07239413       1.00057799  F      -7.38960546       0.00219589      -0.27650499       0.00101942
C        1.23000000       1.42028166       1.00057799  F      -7.36358724       0.09001582       0.07136014       0.01723815
C       -2.46000000       7.81154914       1.00057799  F      -7.36355432       0.10655646       0.04216267       0.01607054
C       -1.23000000      11.36225330       1.00057799  F      -7.36715671       0.08949337      -0.05406641       0.00464831
C        9.84000000       3.55070416       1.00057799  F      -7.35245608      -0.00753573       0.00166041      -0.02249564
C        0.00000000       0.71014083       1.00057799  F      -7.34453335       0.03302609       0.02790694      -0.04602842
C       -3.69000000       7.10140831       1.00057799  F      -7.34445673       0.04129029       0.01483381      -0.04792134
C       -2.46000000       9.23183080       1.00057799  F      -7.36235295       0.05233464      -0.03276494       0.00555730
C       11.07000000       5.68112665       1.00057799  F      -7.35341804      -0.02575743       0.00946104      -0.02231592
C        8.61000000       1.42028166       1.00057799  F      -7.34968803       0.00038161       0.00022070       0.00012089
C        7.38000000       0.71014083       1.00057799  F      -7.34964104      -0.00030844      -0.00017784       0.00009544
C       -2.46000000      12.07239413       1.00057799  F      -7.34969747      -0.00023547      -0.00013580      -0.00000465
C       11.07000000       2.84056332       1.00057799  F      -7.34989971       0.00009944       0.00005682       0.00010906
C       -2.46000000       4.97098582       1.00057799  F      -7.35001564      -0.00081217      -0.00009644       0.00001529
C       -3.69000000       9.94197164       1.00057799  F      -7.34995201       0.00034220       0.00000415       0.00019758
C       -3.69000000      11.36225330       1.00057799  F      -7.34989163      -0.00025085      -0.00014532       0.00011163
C       12.30000000       3.55070416       1.00057799  F      -7.35002288       0.00019082       0.00011049       0.00000021
C        4.92000000       0.71014083       1.00057799  F      -7.36718674      -0.00203596       0.10466283       0.00620772
C       11.07000000       1.42028166       1.00057799  F      -7.35246341      -0.00232473      -0.00736427      -0.02163491
C       -1.23000000       2.84056332       1.00057799  F      -7.35001533      -0.00048952      -0.00065471       0.00001266
C       -4.92000000      12.07239413       1.00057799  F      -7.34995169       0.00017399       0.00029398       0.00019465
C        2.46000000       0.71014083       1.00057799  F      -7.36239112      -0.00222791       0.06192685       0.00712104
C       13.53000000       1.42028166       1.00057799  F      -7.35344653      -0.00470959      -0.02722969      -0.02135924
