71
Lattice="14.76 0.0 0.0 -7.38 12.782534959858314 0.0 0.0 -0.0 2.0" Properties=species:S:1:pos:R:3:move_mask:L:1:energies:R:1:forces:R:3 title="Defect B (5|9)" energy=-514.5296622867506 free_energy=-514.5296622867506 stress="0.017690150951055545 -0.04933044745499635 -6.894830703685229e-05 -0.04933044745499635 0.07457550819317688 -4.053121907806731e-05 -6.894830703685229e-05 -4.053121907806731e-05 1.498412135929239e-05" pbc="T T F"
C        3.48651768       6.98436795       1.76278585  T      -4.73388682       0.03404811       0.01954531      -0.02458354
C        3.64574494       5.63933381       1.40951020  T      -7.37647578       0.01285883      -0.00669758       0.00674578
C        2.40182290       7.79414572       1.40637097  T      -7.37642210       0.00172314       0.01648593       0.01011774
C        5.07328927       8.98641478       0.94894227  T      -5.71264931      -0.00004271       0.01463340       0.02283180
C        6.01400661       7.35683997       0.94815123  T      -5.71269283       0.01564374      -0.00293496       0.02453589
C        4.88173973       5.02260230       1.14621321  T      -7.41317951       0.02266339      -0.00307603       0.00767327
C        6.05083740       5.83655176       0.99670541  T      -7.09684511       0.00114805      -0.00199184       0.03698244
C        2.48561013       9.17289590       1.14314358  T      -7.41334308       0.00547481       0.01803407       0.01237151
C        3.77507335       9.77851405       0.99592426  T      -7.09689791       0.00318243       0.00337164       0.03731549
C        2.43741005       4.94526787       1.15669010  T      -7.28437974      -0.00275989      -0.02034568       0.01869660
C        1.19664915       7.09465964       1.15395095  T      -7.28458616      -0.02023355       0.00717934       0.02104719
C        7.36488067       7.85671361       0.93853670  T      -7.21134401       0.02158291      -0.00927596       0.02117052
C        6.18154875       9.90630315       0.94115048  T      -7.21143860       0.00864818       0.02166403       0.01556709
C        1.21993264       5.67520583       1.07409436  T      -7.33504316       0.00355557       0.00254902       0.03299959
C        7.42070809       9.25528471       0.94764495  T      -7.29029774      -0.00617990       0.00023111       0.00448303
C        4.92526304       3.58158421       1.03868130  T      -7.29547900      -0.01805847      -0.01036391       0.03693064
C        7.32075498       5.02881228       0.97777583  T      -7.09502935      -0.01609787       0.01210871       0.01839309
C        1.25938196       9.93107137       1.03647737  T      -7.29560841      -0.01776662      -0.01024190       0.03991025
C        3.71050292      11.28210771       0.97826120  T      -7.09521346       0.00150871      -0.02127606       0.01699450
C        2.45798062       3.54051734       1.03985424  T      -7.36750236      -0.03117298      -0.02287718      -0.00394725
C       -0.00973887       7.81483434       1.03781934  T      -7.36740264      -0.03536360      -0.01536926      -0.00198003
C        6.15176295      11.33307683       0.96928790  T      -7.36462455       0.00554824       0.02696747       0.00592512
C        8.58563261       7.11750126       0.96682627  T      -7.36448089       0.02577484      -0.00787520       0.01131916
C        3.69652182       2.84652475       1.01343826  T      -7.32258984      -0.03184499      -0.00284395      -0.00020217
C        0.00844132       9.23447125       1.01161080  T      -7.32253206      -0.01845102      -0.02641114       0.00183568
C        8.58935537       5.69777333       0.97583083  T      -7.34339271      -0.01932428      -0.00837352       0.02758147
C        4.92411588      12.04619909       0.97743086  T      -7.34348901      -0.01618277      -0.01198935       0.02405724
C        0.00000000       4.97098582       1.00057799  F      -7.34794576      -0.34702252      -0.20140646       0.09154022
C        6.15000000       2.84056332       1.00057799  F      -7.37136526      -0.21871846       0.55010822       0.10796650
C        7.38000000       3.55070416       1.00057799  F      -7.28630874      -0.78852265       1.62536652      -0.13738750
C        1.23000000      11.36225330       1.00057799  F      -7.37142587       0.36680810      -0.46347652       0.09985837
C        2.46000000      12.07239413       1.00057799  F      -7.28630395       1.01374747      -1.49478996      -0.13386704
C        8.61000000       9.94197164       1.00057799  F      -7.39062270       1.43837181       0.82980299      -0.11640216
C        1.23000000       2.84056332       1.00057799  F      -7.34880477      -0.10569413      -0.27145598       0.04238423
C       -1.23000000       7.10140831       1.00057799  F      -7.34886258      -0.28758852       0.04350663       0.03618194
C        7.38000000      12.07239413       1.00057799  F      -7.32453878      -0.20085704      -0.31482615      -0.09395874
C        9.84000000       7.81154914       1.00057799  F      -7.32445692      -0.37405702      -0.01722574      -0.10334160
C        0.00000000       3.55070416       1.00057799  F      -7.34253186      -0.02378060      -0.02052457      -0.09987746
C       -1.23000000       5.68112665       1.00057799  F      -7.34256913      -0.02929762      -0.01028800      -0.09808133
C       -4.92000000       9.23183080       1.00057799  F      -7.32470121       0.13060794       0.10731201       0.07883641
C       -6.15000000      11.36225330       1.00057799  F      -7.32470463       0.15817157       0.05936608       0.07668881
C        3.69000000       1.42028166       1.00057799  F      -7.34884998       0.17629907       0.20143913       0.00477695
C       -1.23000000       9.94197164       1.00057799  F      -7.34885502       0.26279390       0.05137003      -0.00115872
C        9.84000000       4.97098582       1.00057799  F      -7.33801320      -0.80639740       0.35177492      -0.08915934
C       12.30000000       0.71014083       1.00057799  F      -7.33805810      -0.09819274      -0.87344534      -0.08294515
C        6.15000000       1.42028166       1.00057799  F      -7.36303178      -0.09113474       0.07527002      -0.02855531
C        8.61000000       2.84056332       1.00057799  F      -7.38945725      -0.00224614       0.27555755       0.01525945
C        9.84000000       0.71014083       1.00057799  F      -7.38943672       0.23734949      -0.13958130       0.01489300
C        0.00000000      12.07239413       1.00057799  F      -7.36302764       0.01964976      -0.11654610      -0.02684951
C        1.23000000       1.42028166       1.00057799  F      -7.34500453      -0.03065655      -0.02589589      -0.03319698
C       -2.46000000       7.81154914       1.00057799  F      -7.34504206      -0.03739951      -0.01350631      -0.03141722
C       -1.23000000      11.36225330       1.00057799  F      -7.35259693       0.00719180      -0.00107848      -0.01014200
C        9.84000000       3.55070416       1.00057799  F      -7.36707679      -0.08910547       0.05371244       0.01926743
C        0.00000000       0.71014083       1.00057799  F      -7.36399849      -0.09229080      -0.07288364       0.02410628
C       -3.69000000       7.10140831       1.00057799  F      -7.36400539      -0.10924223      -0.04352361       0.02599162
C       -2.46000000       9.23183080       1.00057799  F      -7.35407015       0.03049038      -0.01131994      -0.01020982
C       11.07000000       5.68112665       1.00057799  F      -7.36235914      -0.05248982       0.03293061       0.02017807
C        8.61000000       1.42028166       1.00057799  F      -7.34964273       0.00030809       0.00017804       0.00001776
C        7.38000000       0.71014083       1.00057799  F      -7.34968910      -0.00038142      -0.00022027       0.00005394
C       -2.46000000      12.07239413       1.00057799  F      -7.34989573      -0.00009909      -0.00005764       0.00007130
C       11.07000000       2.84056332       1.00057799  F      -7.34969823       0.00023417       0.00013494      -0.00004362
C       -2.46000000       4.97098582       1.00057799  F      -7.34994918      -0.00031647       0.00000343       0.00013583
C       -3.69000000       9.94197164       1.00057799  F      -7.35001065       0.00081609       0.00008786      -0.00002304
C       -3.69000000      11.36225330       1.00057799  F      -7.35001850      -0.00019002      -0.00010954      -0.00002671
C       12.30000000       3.55070416       1.00057799  F      -7.34988988       0.00024619       0.00014193       0.00005343
C        4.92000000       0.71014083       1.00057799  F      -7.35258437       0.00268224       0.00667871      -0.01169961
C       11.07000000       1.42028166       1.00057799  F      -7.36706887       0.00200094      -0.10401720       0.01805357
C       -1.23000000       2.84056332       1.00057799  F      -7.34994932      -0.00015566      -0.00027646       0.00013959
C       -4.92000000      12.07239413       1.00057799  F      -7.35001085       0.00048386       0.00066240      -0.00001938
C        2.46000000       0.71014083       1.00057799  F      -7.35406049       0.00544017       0.03203065      -0.01173202
C       13.53000000       1.42028166       1.00057799  F      -7.36234292       0.00226127      -0.06180653       0.01886745
