71
Lattice="14.76 0.0 0.0 -7.38 12.782534959858314 0.0 0.0 -0.0 2.0" Properties=species:S:1:pos:R:3:move_mask:L:1:energies:R:1:forces:R:3 title="Defect B (D3h)" energy=-514.2249465870015 free_energy=-514.2249465870015 stress="-0.02359717859540353 -0.0007578409428423939 -2.647102667681443e-06 -0.0007578409428423939 -0.02279921043071528 -7.25421531635027e-06 -2.647102667681443e-06 -7.25421531635027e-06 -7.92724193584899e-06" pbc="T T F"
C        3.57650961       7.03567090       1.24785179  T      -4.76706192       0.01092996       0.03004432      -0.00682529
C        3.69089871       5.64827785       1.13199117  T      -7.39915809      -0.00373281      -0.00689771       0.02966245
C        2.43181487       7.82891293       1.13251115  T      -7.39912582       0.01451547      -0.02164380       0.03142848
C        4.91775801       9.34753665       0.96800876  T      -4.76201932       0.00020274      -0.02081875       0.00319723
C        6.24910350       7.04163433       0.96873006  T      -4.76197211      -0.01933812       0.00820138       0.00275707
C        4.91788511       4.96271554       1.06041680  T      -7.43608853      -0.01606409      -0.00576874      -0.02077869
C        6.14349464       5.65125254       1.01042363  T      -7.39855267      -0.00849419       0.00318618       0.00277992
C        2.45178225       9.23404286       1.06081185  T      -7.43645210      -0.01204420      -0.00100194      -0.02141182
C        3.66091347       9.95127116       1.01043875  T      -7.39846765      -0.00578835      -0.01078719       0.00277458
C        2.45503741       4.95170170       1.05006975  T      -7.29257596      -0.01759996      -0.00178749      -0.02051282
C        1.21084987       7.10673166       1.05059610  T      -7.29276996      -0.01616981      -0.01273438      -0.02153272
C        7.40140440       7.82840110       0.98184399  T      -7.39725990      -0.01384067      -0.00455311      -0.01241921
C        6.17530386       9.95207434       0.98161970  T      -7.39723441      -0.01239368      -0.01011093      -0.01255611
C        1.22948100       5.68082915       1.02487870  T      -7.32814950      -0.02639624      -0.01560035       0.01669919
C        7.38368018       9.23395472       0.99000299  T      -7.44265603      -0.00326468      -0.00213187      -0.01823198
C        4.91843916       3.54385580       1.01984611  T      -7.32677525      -0.00067427      -0.01146350       0.00063121
C        7.38271878       4.95724672       1.00672181  T      -7.30732155       0.00049344       0.00755063      -0.01011533
C        1.22329121       9.94403578       1.02011815  T      -7.32656322      -0.00945007       0.00566937       0.00043076
C        3.67945974      11.37146443       1.00697360  T      -7.30737478       0.00683756      -0.00296284      -0.01047500
C        2.45803112       3.54076832       1.00830243  T      -7.36822227       0.00697451      -0.01959821       0.03769737
C       -0.00959786       7.81482596       1.00867595  T      -7.36803962      -0.01286336       0.01385973       0.03725330
C        6.15951299      11.37184074       0.99402412  T      -7.30834526      -0.00840040      -0.00079331       0.01102628
C        8.62307135       7.10485103       0.99387788  T      -7.30834512      -0.00531096      -0.00695205       0.01137907
C        3.68902910       2.83631482       1.00454053  T      -7.35232894       0.00691090      -0.01354507      -0.00069233
C       -0.00415450       9.23310692       1.00480846  T      -7.35236678      -0.00910990       0.01349286      -0.00092637
C        8.60966782       5.68081895       1.00124188  T      -7.33045809       0.00731113      -0.00528178      -0.00025347
C        4.91956569      12.07225465       1.00156049  T      -7.33043671      -0.00087808       0.00908785      -0.00127164
C        0.00000000       4.97098582       1.00057799  F      -7.34535166      -0.06245700      -0.03595842       0.03887104
C        6.15000000       2.84056332       1.00057799  F      -7.34361174       0.02203740      -0.12094539       0.03823810
C        7.38000000       3.55070416       1.00057799  F      -7.36369314       0.09839260      -0.45869280       0.00256058
C        1.23000000      11.36225330       1.00057799  F      -7.34364067      -0.09340203       0.07896614       0.03886268
C        2.46000000      12.07239413       1.00057799  F      -7.36370437      -0.34788630       0.31418400       0.00327590
C        8.61000000       9.94197164       1.00057799  F      -7.32765907       0.22571710       0.13030005      -0.01952492
C        1.23000000       2.84056332       1.00057799  F      -7.35201938      -0.14200126      -0.20034822      -0.00838542
C       -1.23000000       7.10140831       1.00057799  F      -7.35203921      -0.24439236      -0.02272296      -0.00719983
C        7.38000000      12.07239413       1.00057799  F      -7.36257626       0.31728804       0.31606258      -0.01552260
C        9.84000000       7.81154914       1.00057799  F      -7.36258781       0.43262016       0.11683827      -0.01617028
C        0.00000000       3.55070416       1.00057799  F      -7.34812443       0.00197151      -0.00230868      -0.02802313
C       -1.23000000       5.68112665       1.00057799  F      -7.34813048      -0.00097297       0.00290072      -0.02834924
C       -4.92000000       9.23183080       1.00057799  F      -7.34104306       0.04035161       0.02150117       0.01507209
C       -6.15000000      11.36225330       1.00057799  F      -7.34104527       0.03879678       0.02419020       0.01496125
C        3.69000000       1.42028166       1.00057799  F      -7.35039695       0.00074827      -0.15487810      -0.00247129
C       -1.23000000       9.94197164       1.00057799  F      -7.35036448      -0.13342356       0.07797015      -0.00167160
C        9.84000000       4.97098582       1.00057799  F      -7.34568584       0.03338798      -0.02517026       0.00379193
C       12.30000000       0.71014083       1.00057799  F      -7.34568516      -0.00513061       0.04128923       0.00506241
C        6.15000000       1.42028166       1.00057799  F      -7.34700156       0.02132088      -0.01778039      -0.01598188
C        8.61000000       2.84056332       1.00057799  F      -7.34258639       0.00416638      -0.04516105      -0.00516192
C        9.84000000       0.71014083       1.00057799  F      -7.34259311      -0.03698261       0.02615432      -0.00538747
C        0.00000000      12.07239413       1.00057799  F      -7.34700794      -0.00473525       0.02731353      -0.01621666
C        1.23000000       1.42028166       1.00057799  F      -7.34432288      -0.03449620      -0.02711252      -0.00656430
C       -2.46000000       7.81154914       1.00057799  F      -7.34431858      -0.04077563      -0.01633242      -0.00688801
C       -1.23000000      11.36225330       1.00057799  F      -7.34788830      -0.00903218       0.00568040      -0.00426190
C        9.84000000       3.55070416       1.00057799  F      -7.34937379       0.00425005      -0.00217710      -0.00080808
C        0.00000000       0.71014083       1.00057799  F      -7.34272703       0.03719217       0.02675928       0.00547732
C       -3.69000000       7.10140831       1.00057799  F      -7.34271999       0.04181708       0.01884979       0.00561492
C       -2.46000000       9.23183080       1.00057799  F      -7.34711273      -0.01664441       0.00788750      -0.00377713
C       11.07000000       5.68112665       1.00057799  F      -7.34961924       0.00150405      -0.00169396      -0.00022957
C        8.61000000       1.42028166       1.00057799  F      -7.35001023      -0.00010305      -0.00005951       0.00004116
C        7.38000000       0.71014083       1.00057799  F      -7.35003610       0.00005604       0.00003236       0.00004324
C       -2.46000000      12.07239413       1.00057799  F      -7.35000441      -0.00000864      -0.00000523       0.00003358
C       11.07000000       2.84056332       1.00057799  F      -7.35000366      -0.00003235      -0.00001872       0.00000817
C       -2.46000000       4.97098582       1.00057799  F      -7.35001224      -0.00004703      -0.00000398       0.00005035
C       -3.69000000       9.94197164       1.00057799  F      -7.35005694       0.00005154       0.00012321      -0.00000779
C       -3.69000000      11.36225330       1.00057799  F      -7.35002274      -0.00005910      -0.00003411      -0.00000189
C       12.30000000       3.55070416       1.00057799  F      -7.34999012       0.00000981       0.00000569       0.00002811
C        4.92000000       0.71014083       1.00057799  F      -7.34788124       0.00040583      -0.01070352      -0.00403189
C       11.07000000       1.42028166       1.00057799  F      -7.34937681       0.00023975       0.00475417      -0.00107706
C       -1.23000000       2.84056332       1.00057799  F      -7.35001223      -0.00002705      -0.00003880       0.00005019
C       -4.92000000      12.07239413       1.00057799  F      -7.35005692       0.00013229      -0.00001721      -0.00000820
C        2.46000000       0.71014083       1.00057799  F      -7.34710774      -0.00149259      -0.01838301      -0.00354138
C       13.53000000       1.42028166       1.00057799  F      -7.34962317      -0.00071705       0.00212428      -0.00049370
