71
Lattice="14.76 0.0 0.0 -7.38 12.782534959858314 0.0 0.0 -0.0 2.0" Properties=species:S:1:pos:R:3:move_mask:L:1:energies:R:1:forces:R:3 title="Defect A (D3h)" energy=-514.2249568120864 free_energy=-514.2249568120864 stress="-0.023635418599346182 -0.0007413291467813052 4.7450879656951286e-06 -0.0007413291467813052 -0.02274520197896482 3.2363024567331475e-06 4.7450879656951286e-06 3.2363024567331475e-06 -7.897285221429385e-06" pbc="T T F"
C        5.03360480       7.87708832       1.24813980  T      -4.76709760      -0.02118516      -0.01128465      -0.00677879
C        3.69230005       5.56539531       0.96592085  T      -4.76200311      -0.00519117       0.02062450       0.00309014
C        2.36088996       7.87122509       0.97046085  T      -4.76196036       0.02345121      -0.00047288       0.00314797
C        4.91911092       9.26477664       1.13250633  T      -7.39909252       0.00637944      -0.00804532       0.03028640
C        6.17808639       7.08411528       1.13219691  T      -7.39912693      -0.00275432       0.01003001       0.02997405
C        4.94908001       4.96170961       1.00934543  T      -7.39852209       0.00718826       0.00784040       0.00246381
C        6.15820377       5.67886516       1.06021311  T      -7.43619628       0.01227267       0.00627067      -0.02111164
C        2.46652514       9.26174069       1.01129689  T      -7.39853135       0.00765517      -0.00943114       0.00294627
C        3.69215178       9.95020525       1.06098227  T      -7.43636641       0.01411765       0.00933292      -0.02057461
C        2.43467314       4.96086375       0.98071110  T      -7.39724775       0.01706561       0.01072468      -0.01240817
C        1.20863865       7.08457566       0.98277157  T      -7.39726765       0.00939876      -0.00008601      -0.01260124
C        7.39916312       7.80620740       1.05012296  T      -7.29263867       0.01311197       0.01350635      -0.02015113
C        6.15497207       9.96121925       1.05036884  T      -7.29269860       0.01841992       0.00517034      -0.02059968
C        1.22634693       5.67896443       0.99008322  T      -7.44262892       0.00157371       0.00481164      -0.01872493
C        7.38053125       9.23212719       1.02479045  T      -7.32817333       0.02606438       0.01504350       0.01655855
C        4.93053965       3.54147717       1.00664559  T      -7.30727213      -0.00705984       0.00427374      -0.01074924
C        7.38671362       4.96891512       1.01988175  T      -7.32669191       0.00930266      -0.00549573       0.00027865
C        1.22729221       9.95569125       1.00695493  T      -7.30739162      -0.00074149      -0.00597285      -0.00982175
C        3.69156739      11.36909902       1.02011112  T      -7.32662070       0.00022852       0.01075935       0.00055678
C        2.45049997       3.54110864       0.99372193  T      -7.30834482       0.00774859       0.00049529       0.01093976
C       -0.01307115       7.80810052       0.99425926  T      -7.30830802       0.00624974       0.00705931       0.01100379
C        6.15196298      11.37219510       1.00857927  T      -7.36810061      -0.00627641       0.01848028       0.03697544
C        8.61959859       7.09813003       1.00838755  T      -7.36811793       0.01288754      -0.01479862       0.03735227
C        3.69043866       2.84069016       1.00137459  T      -7.33049445       0.00079235      -0.00864582      -0.00084522
C        0.00033418       9.23213902       1.00139978  T      -7.33046282      -0.00726733       0.00498521      -0.00029285
C        8.61415866       5.67983563       1.00461272  T      -7.35236963       0.00884467      -0.01267620      -0.00070023
C        4.92096637      12.07663925       1.00476754  T      -7.35237903      -0.00666259       0.01380321      -0.00097720
C        0.00000000       4.97098582       1.00057799  F      -7.32766185      -0.22550706      -0.13035950      -0.01914315
C        6.15000000       2.84056332       1.00057799  F      -7.36372324       0.34809825      -0.31436404       0.00301119
C        7.38000000       3.55070416       1.00057799  F      -7.34362738       0.09356311      -0.07940655       0.03864663
C        1.23000000      11.36225330       1.00057799  F      -7.36365185      -0.09835397       0.45812840       0.00256195
C        2.46000000      12.07239413       1.00057799  F      -7.34362687      -0.02176991       0.12053539       0.03869053
C        8.61000000       9.94197164       1.00057799  F      -7.34537472       0.06270381       0.03610527       0.03857042
C        1.23000000       2.84056332       1.00057799  F      -7.36254637      -0.31704209      -0.31613666      -0.01604793
C       -1.23000000       7.10140831       1.00057799  F      -7.36262233      -0.43253405      -0.11699688      -0.01526392
C        7.38000000      12.07239413       1.00057799  F      -7.35203286       0.14185318       0.20025730      -0.00744698
C        9.84000000       7.81154914       1.00057799  F      -7.35203477       0.24450035       0.02267469      -0.00806233
C        0.00000000       3.55070416       1.00057799  F      -7.34103942      -0.03885300      -0.02426405       0.01519009
C       -1.23000000       5.68112665       1.00057799  F      -7.34105847      -0.04020350      -0.02145301       0.01464498
C       -4.92000000       9.23183080       1.00057799  F      -7.34812252       0.00102270      -0.00287983      -0.02802364
C       -6.15000000      11.36225330       1.00057799  F      -7.34812633      -0.00200382       0.00229442      -0.02818933
C        3.69000000       1.42028166       1.00057799  F      -7.34569594       0.00514053      -0.04168077       0.00464610
C       -1.23000000       9.94197164       1.00057799  F      -7.34569178      -0.03327567       0.02517102       0.00408029
C        9.84000000       4.97098582       1.00057799  F      -7.35038236       0.13369129      -0.07819478      -0.00221250
C       12.30000000       0.71014083       1.00057799  F      -7.35038548      -0.00081469       0.15477009      -0.00178960
C        6.15000000       1.42028166       1.00057799  F      -7.34258405       0.03704101      -0.02619742      -0.00510468
C        8.61000000       2.84056332       1.00057799  F      -7.34700137       0.00473900      -0.02735912      -0.01601514
C        9.84000000       0.71014083       1.00057799  F      -7.34700561      -0.02130212       0.01776915      -0.01620866
C        0.00000000      12.07239413       1.00057799  F      -7.34259960      -0.00415867       0.04507220      -0.00536356
C        1.23000000       1.42028166       1.00057799  F      -7.34272661      -0.03720907      -0.02677877       0.00573934
C       -2.46000000       7.81154914       1.00057799  F      -7.34271980      -0.04180790      -0.01884950       0.00528741
C       -1.23000000      11.36225330       1.00057799  F      -7.34937532      -0.00424289       0.00217429      -0.00094524
C        9.84000000       3.55070416       1.00057799  F      -7.34787902       0.00908742      -0.00572223      -0.00409258
C        0.00000000       0.71014083       1.00057799  F      -7.34432229       0.03450666       0.02712443      -0.00680555
C       -3.69000000       7.10140831       1.00057799  F      -7.34431780       0.04078153       0.01633582      -0.00663865
C       -2.46000000       9.23183080       1.00057799  F      -7.34962049      -0.00149513       0.00169050      -0.00037356
C       11.07000000       5.68112665       1.00057799  F      -7.34711044       0.01663849      -0.00788953      -0.00360398
C        8.61000000       1.42028166       1.00057799  F      -7.35003611      -0.00005597      -0.00003244       0.00004317
C        7.38000000       0.71014083       1.00057799  F      -7.35001025       0.00010327       0.00005904       0.00004111
C       -2.46000000      12.07239413       1.00057799  F      -7.35000366       0.00003237       0.00001857       0.00000810
C       11.07000000       2.84056332       1.00057799  F      -7.35000442       0.00000879       0.00000503       0.00003361
C       -2.46000000       4.97098582       1.00057799  F      -7.35005691      -0.00005124      -0.00012330      -0.00000748
C       -3.69000000       9.94197164       1.00057799  F      -7.35001223       0.00004725       0.00000402       0.00005037
C       -3.69000000      11.36225330       1.00057799  F      -7.34999015      -0.00000984      -0.00000564       0.00002802
C       12.30000000       3.55070416       1.00057799  F      -7.35002274       0.00005905       0.00003408      -0.00000181
C        4.92000000       0.71014083       1.00057799  F      -7.34936847      -0.00023435      -0.00480826      -0.00091316
C       11.07000000       1.42028166       1.00057799  F      -7.34788192      -0.00040861       0.01070646      -0.00422823
C       -1.23000000       2.84056332       1.00057799  F      -7.35005693      -0.00013221       0.00001699      -0.00000848
C       -4.92000000      12.07239413       1.00057799  F      -7.35001224       0.00002704       0.00003875       0.00005004
C        2.46000000       0.71014083       1.00057799  F      -7.34961806       0.00071646      -0.00214641      -0.00033086
C       13.53000000       1.42028166       1.00057799  F      -7.34711057       0.00148963       0.01836058      -0.00373958
