72
Lattice="14.76 0.0 0.0 -7.38 12.782534959858314 0.0 0.0 -0.0 2.0" Properties=species:S:1:pos:R:3:move_mask:L:1:energies:R:1:forces:R:3 title="Pristine Graphene" energy=-529.1981735972969 free_energy=-529.1981735972969 stress="0.0034942653291995785 3.172459099195203e-06 -5.2272367770149786e-08 3.172459099195203e-06 0.0034823734089344366 1.2551663068697263e-07 -5.2272367770149786e-08 1.2551663068697263e-07 1.4983756164136804e-07" pbc="T T F"
C        3.68996154       7.10116499       0.99799927  T      -7.34998301       0.00178366       0.00073882       0.00371045
C        4.92000608       7.81120178       0.99817498  T      -7.34995410      -0.00030881       0.00265718      -0.00175291
C        3.69019943       5.68090660       0.99726130  T      -7.34999240      -0.00291420      -0.00012951       0.00266400
C        2.45994046       7.81135912       1.00045227  T      -7.35000039       0.00203478       0.00107510      -0.00439372
C        4.91991709       9.23151513       0.99819746  T      -7.34996988       0.00199557       0.00139234       0.00318008
C        6.15003880       7.10107776       0.99911178  T      -7.34986139       0.00077338       0.00335047       0.00223368
C        4.92016472       4.97070261       0.99826248  T      -7.34990472      -0.00223576       0.00234164      -0.00068583
C        6.15017606       5.68080061       0.99919694  T      -7.35000985      -0.00264237       0.00390619      -0.00127252
C        2.45985962       9.23167491       1.00158272  T      -7.35000268       0.00376269       0.00064382      -0.00399798
C        3.68992267       9.94169415       0.99972580  T      -7.34997384       0.00190554       0.00348439      -0.00004200
C        2.46019962       4.97081279       0.99795480  T      -7.34997221      -0.00445409       0.00151677       0.00242223
C        1.22998947       7.10126031       0.99980659  T      -7.35000973      -0.00036184       0.00153465       0.00322888
C        7.38000118       7.81140209       1.00056534  T      -7.34986959      -0.00036435      -0.00003695      -0.00165325
C        6.14992621       9.94174166       0.99860932  T      -7.34999209       0.00146564       0.00145244       0.00008804
C        1.23013518       5.68095595       0.99946983  T      -7.34984300      -0.00252891       0.00250462      -0.00302221
C        7.37997083       9.23170165       0.99999036  T      -7.34988256       0.00131179      -0.00009843      -0.00171708
C        4.91994466       3.55046352       0.99893324  T      -7.34997665       0.00193235       0.00332338       0.00056918
C        7.38020146       4.97087904       1.00006447  T      -7.35018764      -0.00282098       0.00132812       0.00050206
C        1.23003762       9.94208251       1.00153585  T      -7.35031956      -0.00115449      -0.00480513      -0.00490693
C        3.69009357      11.36206447       0.99940059  T      -7.34956644      -0.00319019       0.00245050       0.00477372
C        2.46003411       3.55059019       0.99883368  T      -7.35008477      -0.00051182       0.00004628      -0.00028149
C        0.00006563       7.81165584       1.00001523  T      -7.34964839      -0.00200726      -0.00451811       0.00036869
C        6.15012489      11.36206134       0.99874216  T      -7.35013559      -0.00351110       0.00160142       0.00657623
C        8.61005374       7.10137458       1.00116943  T      -7.35008051      -0.00098088       0.00037314      -0.00425167
C        3.68993377       2.84040698       0.99893323  T      -7.35025808       0.00273131       0.00299755       0.00271714
C        0.00006504       9.23199592       1.00054714  T      -7.35000316      -0.00199140      -0.00565416       0.00112096
C        8.61008585       5.68114296       1.00079426  T      -7.35011630      -0.00063517      -0.00212328      -0.00158193
C        4.92016789      12.07225039       0.99978569  T      -7.34978700      -0.00553156       0.00230771      -0.00572779
C        0.00000000       4.97098582       1.00000000  F      -7.34995648       0.00197205      -0.00163619      -0.00080227
C        6.15000000       2.84056332       1.00000000  F      -7.34996417       0.00095656      -0.00353981      -0.00309970
C        7.38000000       3.55070416       1.00000000  F      -7.35003732       0.00233344      -0.00343817       0.00126666
C        1.23000000      11.36225330       1.00000000  F      -7.35019408       0.00135741       0.00281138       0.00647088
C        2.46000000      12.07239413       1.00000000  F      -7.34976580       0.00432574      -0.00283310      -0.00392337
C        8.61000000       9.94197164       1.00000000  F      -7.34989621      -0.00219148      -0.00202326       0.00062051
C        1.23000000       2.84056332       1.00000000  F      -7.34995826      -0.00054938      -0.00082302      -0.00331163
C       -1.23000000       7.10140831       1.00000000  F      -7.34984962       0.00210074       0.00246965      -0.00018613
C        7.38000000      12.07239413       1.00000000  F      -7.35004630       0.00142014      -0.00244049      -0.00500993
C        9.84000000       7.81154914       1.00000000  F      -7.35000197       0.00071806       0.00037319       0.00476180
C        0.00000000       3.55070416       1.00000000  F      -7.34995278      -0.00014598      -0.00029501       0.00145749
C       -1.23000000       5.68112665       1.00000000  F      -7.35011898       0.00109478       0.00054559       0.00042339
C       -4.92000000       9.23183080       1.00000000  F      -7.34999572      -0.00001514      -0.00008175      -0.00096334
C       -6.15000000      11.36225330       1.00000000  F      -7.34998312       0.00023770      -0.00011488       0.00108421
C        3.69000000       1.42028166       1.00000000  F      -7.35009645      -0.00092254      -0.00493474      -0.00354391
C       -1.23000000       9.94197164       1.00000000  F      -7.35001638       0.00007410       0.00156902       0.00149024
C        9.84000000       4.97098582       1.00000000  F      -7.34996384       0.00260487      -0.00038809       0.00298315
C       12.30000000       0.71014083       1.00000000  F      -7.34987660       0.00141885      -0.00467384       0.00042340
C        6.15000000       1.42028166       1.00000000  F      -7.34987007       0.00075005      -0.00061365       0.00090721
C        8.61000000       2.84056332       1.00000000  F      -7.34986618       0.00014494      -0.00091994      -0.00008814
C        9.84000000       0.71014083       1.00000000  F      -7.35010558       0.00074317      -0.00055184       0.00049335
C        0.00000000      12.07239413       1.00000000  F      -7.34992426      -0.00000115       0.00023239      -0.00126509
C        1.23000000       1.42028166       1.00000000  F      -7.34991971      -0.00039506      -0.00031320       0.00098648
C       -2.46000000       7.81154914       1.00000000  F      -7.35001747       0.00012658       0.00008375      -0.00003487
C       -1.23000000      11.36225330       1.00000000  F      -7.34990889      -0.00050126       0.00041591      -0.00050902
C        9.84000000       3.55070416       1.00000000  F      -7.34994747       0.00008033      -0.00002226      -0.00064505
C        0.00000000       0.71014083       1.00000000  F      -7.35003338      -0.00051935      -0.00045185       0.00102264
C       -3.69000000       7.10140831       1.00000000  F      -7.34993940       0.00027182       0.00011045      -0.00097943
C       -2.46000000       9.23183080       1.00000000  F      -7.35001566       0.00048000      -0.00016416      -0.00044117
C       11.07000000       5.68112665       1.00000000  F      -7.34992316       0.00035550      -0.00014743      -0.00069297
C        8.61000000       1.42028166       1.00000000  F      -7.34997521       0.00000171      -0.00000450       0.00000021
C        7.38000000       0.71014083       1.00000000  F      -7.34997553      -0.00000006       0.00000049      -0.00000064
C       -2.46000000      12.07239413       1.00000000  F      -7.34997567      -0.00000012      -0.00000008      -0.00000006
C       11.07000000       2.84056332       1.00000000  F      -7.34997507       0.00000076      -0.00000228      -0.00000029
C       -2.46000000       4.97098582       1.00000000  F      -7.34997519       0.00000377       0.00000163       0.00000029
C       -3.69000000       9.94197164       1.00000000  F      -7.34997505      -0.00000012      -0.00000000       0.00000057
C       -3.69000000      11.36225330       1.00000000  F      -7.34997536       0.00000041       0.00000097      -0.00000047
C       12.30000000       3.55070416       1.00000000  F      -7.34997492      -0.00000052       0.00000067      -0.00000048
C        4.92000000       0.71014083       1.00000000  F      -7.34990745      -0.00000486      -0.00029061       0.00090701
C       11.07000000       1.42028166       1.00000000  F      -7.35010420       0.00013076      -0.00099011       0.00019896
C       -1.23000000       2.84056332       1.00000000  F      -7.34997476      -0.00000043      -0.00000133      -0.00000279
C       -4.92000000      12.07239413       1.00000000  F      -7.34997523      -0.00000013      -0.00000299      -0.00000215
C        2.46000000       0.71014083       1.00000000  F      -7.34987531      -0.00007644      -0.00066538       0.00091038
C       13.53000000       1.42028166       1.00000000  F      -7.35000379       0.00006823       0.00008792       0.00022601
